# vtk DataFile Version 3.0
vtk output
ASCII
DATASET UNSTRUCTURED_GRID
POINTS 29 double
0.000000e+00 1.000000e+01 0.000000e+00
0.000000e+00 0.000000e+00 0.000000e+00
0.000000e+00 0.000000e+00 1.000000e+01
0.000000e+00 1.000000e+01 1.000000e+01
1.000000e+01 0.000000e+00 1.000000e+01
1.000000e+01 0.000000e+00 0.000000e+00
1.000000e+01 1.000000e+01 0.000000e+00
1.000000e+01 1.000000e+01 1.000000e+01
0.000000e+00 5.000000e+00 0.000000e+00
0.000000e+00 0.000000e+00 4.330000e+00
0.000000e+00 1.000000e+01 4.320000e+00
1.000000e+01 0.000000e+00 5.000000e+00
1.000000e+01 4.980000e+00 0.000000e+00
1.000000e+01 1.000000e+01 5.000000e+00
1.000000e+01 4.970000e+00 1.000000e+01
0.000000e+00 0.000000e+00 4.320000e+00
5.290000e+00 0.000000e+00 0.000000e+00
5.660000e+00 0.000000e+00 1.000000e+01
5.280000e+00 1.000000e+01 0.000000e+00
0.000000e+00 1.000000e+01 4.330000e+00
5.670000e+00 1.000000e+01 1.000000e+01
5.280000e+00 0.000000e+00 0.000000e+00
5.290000e+00 1.000000e+01 0.000000e+00
1.000000e+01 4.970000e+00 0.000000e+00
5.670000e+00 0.000000e+00 1.000000e+01
1.000000e+01 4.980000e+00 1.000000e+01
5.660000e+00 1.000000e+01 1.000000e+01
0.000000e+00 5.000729e+00 5.774305e+00
5.178592e+00 5.745675e+00 1.000000e+01
CELLS 38 152
3 0 8 10 
3 8 1 9 
3 2 3 27 
3 9 2 27 
3 3 10 27 
3 8 9 27 
3 10 8 27 
3 4 11 14 
3 11 5 12 
3 12 6 13 
3 13 7 14 
3 11 12 13 
3 14 11 13 
3 2 15 17 
3 15 1 16 
3 16 5 11 
3 11 4 17 
3 15 16 17 
3 11 17 16 
3 6 18 13 
3 18 0 19 
3 19 3 20 
3 20 7 13 
3 18 19 20 
3 13 18 20 
3 5 21 23 
3 21 1 8 
3 8 0 22 
3 22 6 23 
3 21 8 22 
3 23 21 22 
3 3 2 28 
3 26 3 28 
3 2 24 28 
3 24 4 25 
3 25 7 28 
3 7 26 28 
3 24 25 28 
CELL_TYPES 38
5
5
5
5
5
5
5
5
5
5
5
5
5
5
5
5
5
5
5
5
5
5
5
5
5
5
5
5
5
5
5
5
5
5
5
5
5
5
CELL_DATA 38
SCALARS scalars int
LOOKUP_TABLE default
1
1
1
1
1
1
1
2
2
2
2
2
2
3
3
3
3
3
3
4
4
4
4
4
4
5
5
5
5
5
5
6
6
6
6
6
6
6
